46
Lattice="30.0 0.0 0.0 0.0 30.0 0.0 0.0 0.0 30.0" Properties=species:S:1:pos:R:3:forces:R:3 energy=-374.46666934 config_type=nep2xyz virial="-6.02158330957196 -2.039606593410652 0.13464807635587137 -2.039606593410652 -15.124568466662202 -0.5047196354015454 0.13464807635587137 -0.5047196354015454 -1.1070127829558436" pbc="T T T"
C       20.23296000      10.48138000      14.54240000       0.38482600      -0.11293400       0.08969800
C       15.81186000      21.92837000      15.65474000      -0.91217400      -1.35665900       0.04192600
C       12.78418000      10.74097000      14.93540000       1.54385300       1.18714800       0.39599000
C       14.10166000      11.34311000      14.93278000      -2.15252200       0.69934400       0.25479100
C       14.15272000      12.83408000      15.08349000       0.00576800       0.14795000      -1.35423600
C       12.92269000      13.57669000      15.06147000      -0.34772300       0.60222000       0.04721300
C       12.94999000      15.02310000      15.00775000       1.87221000      -0.07540400       0.68001400
C       14.23115000      15.71741000      14.98367000      -0.53812100      -0.47153600      -0.45324100
C       14.29552000      17.12921000      14.98469000      -0.59986700      -0.02829800       1.12749700
C       13.04121000      17.92554000      15.23334000       1.12778900      -0.53383000      -0.78250000
C       13.18400000      19.29590000      15.37311000      -0.30744000      -0.07142400       0.31289900
C       14.33643000      20.01541000      15.43615000       1.61384900      -0.09508200      -0.06388400
C       14.64621000      21.36670000      15.72343000      -0.89870600       0.58242000      -0.16857400
C       10.27866000      10.86974000      15.15203000      -0.99856700       0.07188700       0.12108900
C       11.59706000      11.40054000      15.12511000      -0.40948900       0.93726400      -0.62595500
C       11.64986000      12.95325000      15.10024000      -0.31100900      -1.12298900       0.74876600
C       10.37747000      13.76752000      15.24944000       1.19082000       0.43740800      -0.73118400
C       10.53296000      15.15129000      15.21244000      -0.15206900      -0.74994200       0.22927300
C       11.74586000      15.80977000      15.15950000       0.45195700       0.31764200      -0.24045100
C       11.86297000      17.20252000      15.25716000      -0.54463800      -0.02160700      -0.05242400
C       16.89053000      21.27524000      15.41762000       0.94080700       0.63051400       0.13906200
C       16.95278000      19.88457000      15.22799000      -0.60391100      -0.04905800      -0.76860700
C       15.60613000      19.18216000      15.18392000       0.22211100       1.37183000       0.71241500
C       15.55946000      17.77169000      15.03305000       0.77406800       0.71214400      -0.49132400
C       21.26797000      11.25973000      14.49664000      -1.08172800      -0.18928300      -0.11507500
C       21.59543000      12.50417000      14.42763000      -0.24289800       0.73948500       0.03267000
C       20.40918000      13.37618000      14.54034000       0.17312800      -1.40946800       0.47576300
C       20.37496000      14.72307000      14.74187000      -0.05318900      -0.45195000      -0.72381400
C       17.71948000      10.58850000      14.73113000      -0.71319000       0.61087200      -0.27350800
C       18.95456000      11.14351000      14.64751000       1.92353500       0.36583100      -0.13945100
C       19.07481000      12.64553000      14.63731000      -0.80259000       0.60316800       0.54860600
C       17.84799000      13.42679000      14.83644000       1.50386000      -1.01133700      -0.36357700
C       17.94407000      14.84835000      14.85543000      -0.19498600      -0.15383900      -0.46124300
C        9.29238000      11.70980000      15.23413000       1.37630900       1.73617400       0.04914800
C       19.26392000      15.54621000      14.76764000      -1.03074300      -0.54052000       0.73120100
C       18.10357000      17.71420000      14.82794000      -0.63436600       1.24456500       0.30348800
C       18.06906000      19.15536000      14.92356000       0.39118400      -2.12551500       0.10656900
C       15.27002000      10.63640000      14.76187000       0.53408400       0.23169500       0.00139900
C       16.50941000      11.28185000      14.77498000       0.17793100       0.57815300       0.69074800
C       16.56205000      12.77156000      14.93321000       1.68499700      -0.40839000      -1.08726700
C       15.41025000      13.55953000      14.94039000      -1.72346500      -1.28353800       0.99271500
C       15.45659000      14.98225000      14.93338000      -0.15086500      -0.74906400      -0.21342800
C       16.73713000      15.59496000      14.85107000       0.21168800       1.46159800       0.53811200
C       16.80898000      17.02821000      14.89698000      -0.80525600      -0.11484900      -0.16143900
C       19.25292000      16.92681000      14.80713000      -0.20589300       0.46831400      -0.24984100
C        9.21396000      13.02985000      15.24317000      -1.68936900      -2.61111200       0.14996800
46
Lattice="30.0 0.0 0.0 0.0 30.0 0.0 0.0 0.0 30.0" Properties=species:S:1:pos:R:3:forces:R:3 energy=-372.31487679 config_type=nep2xyz virial="8.648653224855664 -1.3950147385155234 -6.835538514576789 -1.3950147385155234 -18.923531652257203 1.3635013589428726 -6.835538514576789 1.3635013589428726 1.2526147078262726" pbc="T T T"
C       21.36319000      13.25722000      13.24935000       0.56474700       1.73632200      -0.76404300
C       12.73721000      21.05403000      15.50805000       0.27184000       2.33987100      -0.27668400
C       15.40789000      10.22281000      15.95238000      -1.58795300      -1.88463400       1.22127400
C       16.07345000      11.15912000      15.26274000      -2.46531600       1.47775200       0.79860400
C       15.26379000      12.38836000      15.15363000      -0.11826500       2.40755300       0.24397100
C       13.94128000      12.57017000      15.80288000       1.64903800      -0.14250700      -1.61916800
C       13.30596000      13.86127000      15.78367000       0.68777200      -0.30550400      -0.94698500
C       14.03826000      15.02404000      15.30296000      -2.32721300      -1.13280800      -0.71859700
C       13.38183000      16.26321000      15.37267000      -0.39072600       1.64637300       1.15055500
C       12.08418000      16.48478000      16.10309000       0.41778800      -1.82394900      -0.89877500
C       11.75622000      17.82048000      16.28536000      -0.81435400      -0.85853300       0.16451800
C       12.28627000      19.00550000      15.90685000      -0.05367500      -0.27088400      -0.81185600
C       11.78635000      20.36466000      15.98035000      -0.99896000      -1.16451700       0.88769700
C       13.57286000       9.00975000      17.24936000       0.72732400       0.18586700      -0.24484300
C       14.19866000      10.09811000      16.53035000      -0.90867900       0.87729800      -0.45181700
C       13.33323000      11.43579000      16.32725000       0.30512600      -1.33878300       1.32170100
C       11.96931000      11.54533000      16.95737000       1.11314900      -0.10404800      -0.26777500
C       11.45532000      12.78372000      16.78536000      -1.54598700      -0.70355200       0.08847800
C       11.85385000      13.93382000      16.18171000       3.00623700       0.94844100       0.12161300
C       11.42614000      15.23263000      16.29971000      -0.80179400       2.22644700       0.51744300
C       13.92211000      21.40936000      15.09860000       0.45764100      -1.53477500      -0.01416700
C       14.50196000      20.01634000      14.91955000      -2.53416400       0.91270300       0.23068400
C       13.54806000      18.78582000      15.16616000       1.50932900       0.30469900       0.85012800
C       14.04581000      17.45797000      14.97479000       1.38295400       0.79829500      -0.66343200
C       21.95565000      14.36889000      12.82181000      -2.79160600       0.67559600       0.79189100
C       21.43249000      15.57721000      12.67090000       1.90673600      -2.30885300      -0.16354200
C       20.11740000      15.91631000      12.95184000       0.11395800      -1.72140200       1.02074500
C       19.49880000      17.14014000      12.97812000      -0.78468100      -0.67163900       0.33718800
C       19.17429000      12.10205000      13.81529000       1.31585200       1.81460900       0.00576000
C       19.96051000      13.23873000      13.57817000       1.42033700       0.49765000      -0.75319500
C       19.32685000      14.68057000      13.51026000       0.42518600      -2.52455400      -1.00105700
C       17.92064000      14.64271000      13.73468000       0.78042800       1.07119400       0.37395800
C       17.31900000      15.95752000      13.73501000      -0.02919000      -1.56815600       0.16966500
C       12.43071000       9.47600000      17.59680000      -2.26102200       1.13995500       0.60304700
C       18.18154000      17.14201000      13.45689000      -1.99857800       0.18487300      -0.65011600
C       16.14364000      18.51826000      14.10014000       1.63427100      -1.63313800      -0.77980700
C       15.71101000      19.78319000      14.41587000       0.21726400      -0.09562900      -0.29217800
C       17.36619000      11.02933000      14.89559000       1.68859000       0.77441200      -1.78683500
C       17.87980000      12.17644000      14.23091000      -0.16364300      -0.44329800       0.51285600
C       17.17689000      13.43831000      14.18040000       3.10374500       1.47407900      -1.66098400
C       15.90094000      13.57117000      14.58245000      -3.64318100       0.13480100       0.80901100
C       15.20865000      14.89789000      14.51682000       1.35139000      -3.06095300       1.81889600
C       15.93539000      16.00281000      14.11691000       0.64087800       3.32488300       0.29483800
C       15.37881000      17.32484000      14.42034000      -0.70957900      -0.82130200      -0.66765500
C       17.38478000      18.26453000      13.49199000      -0.36086100       0.89321900       0.92526800
C       11.51240000      10.42288000      17.70090000       0.59784800      -1.73347500       0.17372400
46
Lattice="30.0 0.0 0.0 0.0 30.0 0.0 0.0 0.0 30.0" Properties=species:S:1:pos:R:3:forces:R:3 energy=-371.69658087 config_type=nep2xyz virial="0.152848316964675 -5.470520468916516 -7.174602256288946 -5.470520468916516 -0.8016531905192492 3.2443614092656263 -7.174602256288946 3.2443614092656263 25.300356695193592" pbc="T T T"
C       17.55690000      12.54364000       9.57305000       1.00900400       1.09405500      -4.76495800
C       12.76216000      21.22856000      16.13096000      -1.10740600       0.47589500      -0.05702500
C       15.74727000      10.22926000      16.41468000       2.27149200       1.09988200      -0.22585500
C       16.19159000      11.16008000      15.42836000      -2.30675400       0.59311300       0.94292900
C       15.89594000      12.60569000      15.71951000      -0.31102400      -1.05924500       2.03711000
C       15.39212000      12.98767000      17.00659000       0.13448900      -0.32766200       0.61466500
C       15.00429000      14.35698000      17.31709000       1.21649400      -2.28128300      -0.18438800
C       15.18579000      15.32195000      16.30754000      -0.90682500       0.19444700       2.16952400
C       14.67755000      16.59016000      16.66668000      -1.06684800       1.37862300      -1.50276900
C       13.82637000      16.84427000      17.88289000       1.38092800       3.12546600      -1.69771500
C       13.39432000      18.18652000      18.12910000      -0.32723200      -1.23676000      -1.26778100
C       13.30384000      19.10451000      17.08155000       0.00736700       0.56793700       0.36881400
C       12.74096000      20.40684000      17.10914000       0.02886500      -0.77109000       1.67937400
C       15.41904000       9.60234000      18.73874000       0.31178900      -0.87004300       0.37404200
C       15.71409000      10.57515000      17.73970000      -1.65159300      -0.83583400      -0.44417800
C       15.29700000      11.95958000      17.99431000      -0.02613000       1.30575500       0.32793800
C       14.72661000      12.33353000      19.28185000      -1.03188600       0.04089500       2.15994600
C       14.35916000      13.65635000      19.57350000       1.03106800      -0.96892800      -1.38109600
C       14.49356000      14.67216000      18.63572000      -1.80525800       0.71754400       0.50030600
C       13.78738000      15.91633000      18.83880000       1.26557100      -2.94560900       1.13552100
C       13.30449000      20.91630000      15.04138000       0.94132100       0.61335900      -1.47611500
C       14.05179000      19.81608000      14.69410000       0.18315200       0.25722700       0.46835000
C       13.94549000      18.77811000      15.78393000       1.06312200       0.55967100      -0.07709700
C       14.72821000      17.58351000      15.63127000      -1.56262200      -0.49907400       0.51535400
C       17.74933000      13.59694000       8.81451000      -0.13972000      -0.52876000       1.54348200
C       17.87112000      14.92006000       8.90611000      -0.06677100      -1.46195300       0.75105400
C       17.44028000      15.25652000      10.29820000      -0.23223600      -2.12298700      -1.51659200
C       17.05649000      16.52773000      10.57230000       0.22779700      -0.90169500       0.77132800
C       16.87040000      11.63480000      11.76473000       0.12319900       0.02207000       0.37215700
C       17.14661000      12.62745000      10.85692000       0.23628200       0.25400300       0.58335700
C       17.11683000      14.03096000      11.24213000       1.11409600       1.79916900      -1.78616800
C       16.79485000      14.35760000      12.50933000      -3.00764300       0.16368900       2.51293600
C       16.27339000      15.71309000      12.80957000       2.34407700      -0.94705900      -2.89228700
C       14.87213000      10.22792000      19.71363000       0.55666800      -2.05614600       0.24174200
C       16.40969000      16.82054000      11.79234000       0.82060300      -2.18667300      -0.92205800
C       15.33265000      18.29823000      13.37408000       0.54868100       1.83184600       0.32692700
C       15.01317000      19.68172000      13.67715000      -0.86963700      -1.95068100      -0.49703900
C       16.35998000      10.82422000      14.13703000       0.94737600       1.29987700      -2.68910100
C       16.62476000      11.82690000      13.09588000      -0.70126700      -0.16147700       0.93577100
C       16.44195000      13.25974000      13.43707000       0.85989800       0.58765000       0.80601900
C       16.03125000      13.57822000      14.78120000       0.29344500       2.52098500      -2.48219400
C       15.68979000      14.97580000      15.06870000       0.66372800      -0.53590700      -1.88017700
C       15.76781000      16.01836000      14.01991000      -0.44513600      -3.18736300       3.11025900
C       15.23938000      17.21950000      14.33723000      -0.75126100       3.51592200       1.10506800
C       15.95694000      17.98809000      12.19625000      -0.94446300       1.81635300       1.10023700
C       14.44461000      11.27175000      20.28283000      -0.31879800       2.00079800       0.29038000
46
Lattice="30.0 0.0 0.0 0.0 30.0 0.0 0.0 0.0 30.0" Properties=species:S:1:pos:R:3:forces:R:3 energy=-370.04284046 config_type=nep2xyz virial="-14.123555233178001 1.8785007598734644 -2.5960620979501856 1.8785007598734644 -3.728690034355457 -3.432262041476886 -2.5960620979501856 -3.432262041476886 -12.661974799843243" pbc="T T T"
C       16.35068000      17.13117000       8.97608000       0.95824400       0.50648800      -1.26888100
C       19.32679000      16.00500000      20.34272000      -0.61392400      -0.49848600       0.93579500
C       11.12087000      13.91712000      12.97456000       1.13822600      -0.00896300       1.13083500
C       12.53106000      14.27107000      12.86172000      -2.16441400      -2.74149400       0.18928800
C       13.47601000      13.95640000      13.91456000      -1.08763000       3.52495000       1.26536000
C       12.89417000      13.67923000      15.20922000      -0.97212100      -1.48143100       0.20899700
C       13.72366000      13.55267000      16.36848000       0.22477800       1.00956500       0.33764800
C       15.01679000      14.09797000      16.28325000       2.00604000       0.57720800      -0.66624300
C       15.99833000      14.17212000      17.37281000      -1.70921900      -0.20663000       0.23220600
C       15.48244000      13.77007000      18.70934000       0.05747900       2.23347700       1.13293900
C       16.23308000      14.29958000      19.92408000      -0.05195400      -0.80179600      -2.61438200
C       17.47580000      14.89236000      19.74723000       0.31641600       1.49945900       0.76092700
C       18.13110000      15.69151000      20.84203000       1.59521400      -1.03698400      -1.47919500
C        9.13100000      13.77114000      14.55804000      -0.91819600      -0.03520100       1.29838400
C       10.48506000      13.59540000      14.21134000       0.95921300       1.04233800      -0.28157500
C       11.46158000      13.54263000      15.38432000      -0.73940700       0.36544300       0.18381900
C       10.87786000      13.61316000      16.84438000       1.87276800      -0.56652200      -1.16741800
C       11.81756000      13.20613000      17.80288000      -2.16485600       1.22678200      -0.23654400
C       13.17237000      13.26583000      17.73552000       1.21057700       0.74763500      -1.01821900
C       14.11719000      13.58197000      18.70598000       0.53424200      -1.92663400       0.75052500
C       20.28823000      15.86209000      19.45296000      -0.78139300       1.21310300       1.54514500
C       19.50118000      15.65186000      18.28994000      -0.38691700      -1.57998300      -2.27279400
C       18.15957000      15.03822000      18.38013000      -2.89333700      -0.06476600      -0.38575200
C       17.24141000      14.79178000      17.22879000       3.76647300      -0.20356600      -0.31440900
C       17.56629000      17.49159000       9.14495000       1.89205300       0.74080600       1.28611900
C       18.65731000      17.69454000       9.95528000      -3.04743400      -0.58262700      -0.95833300
C       18.09396000      17.06439000      11.20855000       2.74210100      -0.57933400       0.48132400
C       19.06002000      16.78388000      12.25281000      -2.44941500       0.37897600      -0.64756600
C       14.67796000      15.83271000      10.23665000      -1.11203900      -0.68821400       0.21413400
C       15.82762000      16.43834000      10.04851000       2.05653700       0.67611800       1.35586900
C       16.81593000      16.40077000      11.34310000      -0.82853300      -0.02038700      -1.58535500
C       16.35797000      15.66516000      12.47622000       4.73834000       2.20825100      -0.63211400
C       17.39607000      15.49790000      13.54800000      -3.34477500       1.16522600      -0.56006400
C        8.73041000      13.96422000      15.83495000       1.87062400      -0.06073000      -2.20681300
C       18.66375000      16.20713000      13.49909000      -0.79736100      -0.83210400      -3.76262800
C       19.03030000      15.68976000      15.77717000       4.50855500       0.37976500       0.15479300
C       19.82832000      15.74033000      16.94970000      -0.80163600      -0.00064400       0.00103300
C       12.94273000      14.64750000      11.61079000       0.29567300       0.89747900      -0.44311900
C       14.17380000      15.23834000      11.34107000      -0.21568400      -0.61123800       2.17456800
C       15.07628000      15.27623000      12.60712000      -1.73519300      -1.02296300      -0.65492000
C       14.69361000      14.76497000      13.86190000      -2.67401200      -3.19022000       0.12251000
C       15.43232000      14.69369000      15.04785000       4.21624900       0.14290300      -1.42770800
C       16.90082000      15.03324000      14.76116000      -0.70442200      -0.63283500       2.38497300
C       17.83556000      15.04467000      15.85852000      -5.08379300      -0.34712900       2.10644400
C       19.54522000      16.05723000      14.48096000       1.00657500       0.13843100       3.15492700
C        9.58902000      14.10098000      16.77581000      -0.68871000      -0.95352300       1.17547300
46
Lattice="30.0 0.0 0.0 0.0 30.0 0.0 0.0 0.0 30.0" Properties=species:S:1:pos:R:3:forces:R:3 energy=-369.79926256 config_type=nep2xyz virial="-9.988898720798398 -6.376993563682764 -2.0544364190919 -6.376993563682764 -8.878178481422243 -2.9122070181549597 -2.0544364190919 -2.9122070181549597 -14.702086955493028" pbc="T T T"
C       15.41831000      13.15399000       8.95269000       2.87720700       0.53455200      -4.23587100
C       20.42090000      18.25567000      18.70537000      -3.10142100      -1.32623700       0.25018300
C       10.82962000      13.28514000      14.48495000      -0.79952200       0.74319200       2.77281200
C       12.07830000      13.51779000      13.91704000       0.12315300      -1.74881400       3.47078800
C       13.27467000      13.70938000      14.86374000      -1.16631700       4.29847200       1.11588300
C       12.96699000      14.27781000      16.25753000       0.10752700      -2.67561600      -2.27570500
C       14.01385000      14.77140000      17.04608000       1.36075900      -0.28993700      -0.09613200
C       15.34690000      14.99735000      16.46219000      -2.48887000      -0.22063800      -1.06240600
C       16.34811000      15.57778000      17.17238000       2.92250700       2.65459400       2.17765300
C       16.24459000      15.84278000      18.72072000      -2.71688100      -2.79622200      -3.17228500
C       17.25122000      16.35912000      19.39941000       1.49077300       1.50321500       1.42303500
C       18.26947000      17.06596000      18.88183000       2.90405000       1.11412300      -1.50819000
C       19.34174000      17.87221000      19.35984000       1.72172300       0.31451900      -0.22237000
C        9.36070000      13.43818000      16.64622000       0.49070000       0.09465200       0.65142100
C       10.62185000      13.54223000      15.87685000      -1.70783000      -0.19272000      -0.04353000
C       11.65136000      14.06537000      16.75386000       0.82971200       0.92909700       0.23876200
C       11.43421000      14.54289000      18.11203000       1.05751300       0.84186400       2.08044500
C       12.52837000      15.15154000      18.89586000      -4.75991700      -1.60882000      -0.73088600
C       13.77928000      15.08033000      18.48216000       4.81917200       1.03514300      -0.79850400
C       15.00119000      15.45063000      19.12469000      -1.57676300      -0.18994600       0.28045700
C       20.76935000      18.21916000      17.41935000      -0.33821200       0.24701600       1.60234900
C       19.76148000      17.48879000      16.70652000      -0.17161200      -0.55485600      -2.07940000
C       18.52076000      16.90573000      17.31935000       0.44194900       0.67873700       1.10568700
C       17.52615000      16.23911000      16.58095000      -0.96112700      -1.64015800      -1.42766700
C       16.46502000      13.47604000       8.00642000      -2.79501400      -1.30425000       0.91709900
C       17.33212000      13.89266000       8.86598000      -0.28084000       0.64256900       1.90824400
C       17.34895000      14.30972000      10.23892000       0.50641100      -0.76115200       1.25204700
C       18.31271000      14.81298000      11.09174000       0.68553600       0.78557600       0.33687500
C       13.63588000      13.32637000      10.68546000       1.20473000      -0.40623200      -0.23826400
C       14.91033000      13.46812000      10.13858000       1.24029600       0.52308300       1.50537100
C       16.15505000      13.96385000      10.98657000      -1.39279500      -0.60603800      -3.92471200
C       15.91035000      14.29436000      12.27213000      -1.02593700       3.53499400       2.27325200
C       16.80382000      15.15782000      12.96382000       3.01066800      -0.07532300       1.42995700
C        9.34785000      13.76157000      17.89977000       1.87246900       0.57036100      -0.44306700
C       18.26745000      15.35035000      12.37424000      -1.19995000       0.57653300       0.31674600
C       18.93723000      16.55944000      14.53617000      -0.37834200      -1.41633500      -2.15534600
C       19.85604000      17.26199000      15.31083000      -1.09992700      -0.47961800       0.96364200
C       12.44441000      13.17486000      12.69420000      -0.76567700       0.09093500      -1.16763700
C       13.55693000      13.55251000      12.05811000       1.14818100       1.42027000      -0.87663300
C       14.58087000      14.32800000      12.83831000       0.20781500      -3.59420500      -0.09669500
C       14.43302000      14.31937000      14.26598000      -0.42475800      -0.57500400      -1.15551900
C       15.45862000      14.90238000      15.02878000       0.75546800       1.03076100       0.73889200
C       16.59748000      15.52394000      14.37981000      -0.18649500      -2.27307100      -1.78863800
C       17.65611000      16.03746000      15.12076000       1.24804900       2.05630600       1.77693000
C       19.25747000      16.13941000      13.14972000      -1.99022300      -0.56761100       0.90989800
C       10.17771000      14.37737000      18.81195000      -1.69793800      -0.91775700      -1.99897300
47
Lattice="30.0 0.0 0.0 0.0 30.0 0.0 0.0 0.0 30.0" Properties=species:S:1:pos:R:3:forces:R:3 energy=-380.34506454 config_type=nep2xyz virial="-4.3635076859606725 -5.895192749788601 -0.16632997667489993 -5.895192749788601 1.9870281205407752 -0.9956205696001101 -0.16632997667489993 -0.9956205696001101 -0.7632304603451081" pbc="T T T"
C       20.51471000      10.88310000      15.60608000       0.54973200      -1.38243600      -0.54054800
C       15.25108000      21.89978000      14.73562000       1.09029300      -0.89602900       0.00030300
C       13.14932000      10.59671000      15.02458000       0.01294500       0.14650300      -0.32771400
C       14.38342000      11.24552000      15.04251000      -1.53775100       1.51504600      -0.19934400
C       14.28652000      12.74611000      14.93272000       0.70310600      -0.57099800      -0.00890000
C       13.03213000      13.39898000      14.84117000      -0.59997100       0.23357500       0.39139000
C       12.96686000      14.82303000      14.86185000       0.57535300       1.24490600      -0.29888300
C       14.17811000      15.61512000      14.92171000       0.47120600      -1.61539400      -0.21975200
C       14.16343000      17.00556000      14.81113000      -1.02643000       1.10208900       0.20910600
C       12.82573000      17.72027000      14.71305000       0.94387000      -0.79931600      -0.48738200
C       16.44389000      21.38922000      14.71762000       0.43044000       0.74810000      -0.19747200
C       12.83769000      19.10101000      14.67831000       1.35618300       0.70877500      -0.00474100
C       14.12978000      21.30919000      14.69940000      -1.60523200      -0.50307200       0.10458200
C       10.59566000      10.50479000      14.78301000       2.60672800      -1.76611700       0.06267400
C       11.91216000      11.14642000      14.85912000      -1.58533700       0.48933500       0.05808900
C       11.81911000      12.67007000      14.83530000      -0.59572800      -1.15243300       0.14796200
C       10.48459000      13.37957000      14.84939000       0.42362000       0.11963900      -0.50224600
C       10.47062000      14.78205000      14.72237000       0.88435000      -0.50807000       0.22466700
C       11.67136000      15.55341000      14.72644000       0.03506200      -2.46977900      -0.05577900
C       11.70683000      16.89547000      14.54300000       0.23140300       1.47487200       0.41821100
C        9.54876000      11.20789000      14.78780000      -0.45583200       0.74157500      -0.01134700
C       14.01318000      19.88599000      14.72992000      -0.39592200       0.01409300      -0.18460500
C        9.41938000      12.47037000      14.80889000      -1.23063500       1.49379100       0.16691000
C       16.63840000      19.98734000      14.72352000      -1.18988700       0.28670000       0.35058900
C       15.37256000      17.77043000      14.81523000       0.22289700       0.10386000       0.52283800
C       21.57896000      11.73707000      15.62974000      -0.08996000       1.82273500       0.56181300
C       21.59565000      13.01258000      15.67714000      -0.63441100      -1.93606700      -0.34880700
C       20.41040000      13.78645000      15.50079000       0.60987600       0.05490500      -0.53564900
C       20.41826000      15.14547000      15.25852000      -0.68622100      -0.07232000       0.62652400
C       18.06323000      10.76150000      15.31101000       0.36482800       0.09047900      -0.11176700
C       19.23735000      11.48037000      15.40617000       0.16994000       2.38449200       0.30872500
C       19.18220000      12.99626000      15.37232000       0.92829400      -1.75561100       0.39909100
C       17.93437000      13.63869000      15.25554000       0.70470700      -0.45819300      -0.01813500
C       17.93926000      15.05614000      15.23863000      -1.11861900      -0.14573000      -0.53839200