48
Lattice="12.737093000 -0.000000000 0.000000000 -6.368546700 11.030646000 0.000000000 0.000000000 0.000000000 50.000000000" Energy=-347.685401670 Properties=species:S:1:pos:R:3:force:R:3 Virial="3.97815000 -0.76732000 0.01026000 -0.76732000 5.03020000 -2.10082000 0.01026000 -2.10082000 0.99557000" pbc="T T T" Config_type=POSCAR_1000_MD_300K_SCF weight=1.0
Mo      4.73271000     10.14650000      5.48733000      0.35583500     -0.04071500      0.83196500
Mo     -1.67107000     10.06140000      5.65303000      0.15356500      0.02987500     -0.86165900
Mo      1.69767000      4.65504000      5.68270000     -0.90769200     -0.31319200     -0.56474600
Mo     -3.23404000      7.32458000      5.53525000      0.29580000      0.02431900      0.41273100
Mo     -0.01547000      7.40038000      5.59538000      0.12983100     -0.87177200     -0.57839100
Mo     -1.51761000      4.63513000      5.56084000     -0.41172600     -0.06537900      0.58818800
Mo      0.02344000      1.89557000      5.50504000      0.03019300     -0.26186000      1.06840800
Mo      1.55165000     10.08780000      5.42183000      0.10852500      0.75522400      1.44245100
Mo     -4.81742000     10.09740000      5.80227000     -0.16981900      0.35516400     -1.24223300
Mo      6.36844000      1.77256000      5.58677000     -0.24100300     -0.14722100     -0.25877700
Mo      3.19089000      1.81261000      5.52866000      0.10402400      0.50424800      0.71029400
Mo      3.16495000      7.36879000      5.72328000      0.43682800     -0.09435700     -1.50565900
Mo      8.00562000      4.53313000      5.55372000     -0.78264400      0.77009700      0.23091700
Mo      9.57368000      1.86102000      5.79602000     -0.40350600      0.04837200     -1.78081600
Mo      4.84337000      4.58106000      5.52678000     -0.30812600     -0.06461500      0.62270000
Mo      6.35128000      7.35401000      5.48147000     -0.03853100      0.06705900      0.66435600
S      3.13166000      9.31939000      7.04995000     -0.04242500     -0.32644700      0.53134100
S      4.71178000      0.87525000      7.13671000      0.25760500      0.29987000      0.23315700
S      6.41921000      3.59838000      7.08632000     -0.16864900      0.42150600      0.38745900
S      3.17833000      3.70244000      4.01044000      0.34593600     -0.14053000      0.06608600
S      6.38823000      3.57511000      3.98933000      0.17343200      0.27180000      0.00243200
S      1.63943000      6.44508000      4.11939000     -0.17343900      0.29562400     -0.01896800
S      1.54506000      6.50481000      7.29143000      0.26440600     -0.14875200     -0.51078900
S      7.88189000      0.81311000      7.20841000      0.36390100      0.12867800     -0.72700700
S      4.75117000      0.80383000      4.03498000      0.20144100      0.38657900     -0.16204600
S      8.04713000      1.02407000      4.03351000     -0.16991200     -0.55312400      0.34855400
S      3.30210000      3.64870000      7.10484000      0.06567700      0.06867000      0.42741900
S      3.19246000      9.06751000      3.95364000     -0.22053600      0.51779500      0.27861100
S     -1.56504000      6.45963000      7.11110000     -0.55320700     -0.03886700      0.07937900
S     -0.12235000      9.17303000      3.97077000      0.11272500      0.06521100      0.09953700
S      6.44607000      9.29815000      4.05805000     -0.41080200     -0.45041100     -0.23682300
S      6.19406000      9.15350000      7.14134000      0.40509200     -0.03192000      0.04218200
S     11.06860000      1.04206000      4.06394000      0.09396500     -0.29380400     -0.29826400
S     11.24800000      0.90539000      7.14950000     -0.16356300      0.04370100      0.08909800
S      9.62109000      3.62405000      4.12892000      0.16128600     -0.15693300     -0.56094600
S      9.58975000      3.79132000      7.24260000      0.21216700     -0.31931700     -0.40300800
S      7.91858000      6.35455000      3.91468000      0.30174000      0.19215400      0.45917200
S     -0.01599000      9.21654000      7.09379000      0.41337600      0.07611900      0.39382800
S      7.90767000      6.41827000      7.04683000      0.11197700     -0.19210100      0.20275500
S     -3.21489000      9.07671000      7.26666000     -0.01849300      0.11354000     -0.24289200
S      1.60486000      0.77139000      4.10834000     -0.23979800      0.68250300     -0.67155900
S      1.56448000      1.07526000      7.13828000      0.19677700     -0.67046100      0.45088700
S      0.16450000      3.78857000      4.03345000     -0.47235600     -0.19269300     -0.14653600
S      0.04888000      3.68640000      7.11680000     -0.00740400      0.16881000      0.28438000
S     -1.60764000      6.45231000      3.96956000      0.22844300      0.05059800      0.33825500
S      4.68278000      6.44465000      4.03598000      0.29085700      0.08481300     -0.11631500
S     -3.34449000      9.24823000      4.13820000      0.56537100     -0.50075900     -0.31354800
S      4.88391000      6.46053000      7.14276000     -0.47714400     -0.54710000     -0.08556100
48
Lattice="12.737093000 -0.000000000 0.000000000 -6.368546700 11.030646000 0.000000000 0.000000000 0.000000000 50.000000000" Energy=-347.745849520 Properties=species:S:1:pos:R:3:force:R:3 Virial="5.13076000 0.55705000 -1.24213000 0.55705000 3.86490000 -0.54420000 -1.24213000 -0.54420000 1.52141000" pbc="T T T" Config_type=POSCAR_2400_MD_300K_SCF weight=1.0
Mo      4.74986000     10.11930000      5.50162000      0.43856800     -0.24122600      1.14575300
Mo     -1.50965000     10.08550000      5.61562000     -0.16887700      0.04370000     -0.84756200
Mo      1.61342000      4.50131000      5.54974000     -0.52256800      0.75981600      0.31283600
Mo     -3.15153000      7.37908000      5.41212000      0.02568900      0.03674700      1.36718700
Mo      0.08675000      7.37900000      5.73871000     -0.42192000     -0.26458900     -1.86723900
Mo     -1.56269000      4.64292000      5.55545000     -0.17811400     -0.60577400      0.04583800
Mo     -0.06038000      1.79395000      5.79773000      0.05359100      0.26860900     -1.76130500
Mo      1.62161000     10.16000000      5.52899000     -0.31007800     -0.07926600     -0.13541100
Mo     -4.76843000     10.08970000      5.65781000      0.15874300     -0.59054800     -0.61981400
Mo      6.32871000      1.88215000      5.63214000     -0.03829100      0.05682300     -0.84697600
Mo      3.13737000      1.73990000      5.41780000      0.53287000      0.72781500      1.68795800
Mo      3.17180000      7.34275000      5.54903000      0.52338900     -0.24621000      0.12729400
Mo      7.96355000      4.66168000      5.68194000     -0.23657800     -0.47485000     -1.01458600
Mo      9.49133000      1.92693000      5.51507000      0.38843800     -0.53252400      0.64112000
Mo      4.74017000      4.58938000      5.65278000      0.49264200     -0.23101500     -0.86972700
Mo      6.33804000      7.32680000      5.66661000      0.17348000      0.14762400      0.01379200
S      3.20267000      9.20620000      7.02321000     -0.15934300     -0.06136100      0.78090200
S      4.68302000      0.89855000      7.08106000      0.32121900      0.27989800      0.43032700
S      6.35270000      3.73208000      7.26380000     -0.07276000     -0.21201000     -0.47964300
S      3.18956000      3.65521000      3.94544000      0.18591200     -0.12306200      0.19586000
S      6.37990000      3.72398000      4.09970000     -0.23268100      0.01707700      0.21050600
S      1.54230000      6.39397000      4.07539000      0.34509200      0.08178600     -0.17925600
S      1.68644000      6.34253000      7.17237000     -0.18261000      0.11713800      0.02384400
S      7.91327000      0.98729000      7.07040000      0.57582000     -0.22371200      0.71050700
S      4.87202000      0.82891000      4.01697000     -0.40068300      0.52616300     -0.32978900
S      7.89951000      0.98180000      3.98871000      0.03046900      0.21218300     -0.02388600
S      3.16584000      3.53429000      7.06438000     -0.09678500     -0.10304100      0.26949700
S      3.17586000      9.21813000      3.94566000      0.07087300     -0.31524500     -0.07648600
S     -1.60280000      6.44815000      7.08741000     -0.23875200      0.30612200      0.50390000
S      0.04761000      9.11633000      4.03806000      0.14146700      0.31996500      0.34034800
S      6.40931000      9.10494000      4.09050000     -0.13209600      0.40877900     -0.29786200
S      6.33156000      9.22420000      7.19948000     -0.15965700     -0.22074100     -0.36723700
S     11.14790000      0.98588000      4.08224000     -0.03595900      0.02439600     -0.36432200
S     10.96190000      0.84669000      7.18054000      0.33492900      0.42828800     -0.22814600
S      9.49115000      3.84403000      3.99645000      0.30286700     -0.55152100      0.30555400
S      9.60043000      3.69254000      7.12453000     -0.09023000      0.26553200      0.26364000
S      7.86001000      6.39911000      4.00846000      0.43998600      0.40666000      0.28973600
S      0.13189000      9.30538000      7.19474000     -0.25714700     -0.49884400      0.21295600
S      8.06823000      6.52221000      7.12161000     -0.24675800      0.07557900      0.30992700
S     -3.07581000      9.11146000      7.09576000     -0.52949100      0.08529800      0.16922200
S      1.40067000      0.83405000      4.10688000      0.22965700      0.24401600     -0.51113000
S      1.67241000      0.87137000      7.17907000     -0.29550900      0.21533700      0.26030600
S     -0.03817000      3.52945000      4.07887000      0.27970300      0.33010700      0.13176700
S      0.01076000      3.75408000      7.18960000     -0.16086900     -0.41264000      0.08607500
S     -1.42013000      6.49176000      4.01554000     -0.35023600     -0.09182400      0.00147300
S      4.82357000      6.40070000      4.05475000     -0.56258900      0.07259200      0.13084600
S     -3.11882000      9.33585000      3.97378000     -0.42233200     -0.79308900      0.31920700
S      4.67055000      6.39748000      7.22703000      0.45750500      0.41504100     -0.46780600
48
Lattice="12.737093000 -0.000000000 0.000000000 -6.368546700 11.030646000 0.000000000 0.000000000 0.000000000 50.000000000" Energy=-347.657217830 Properties=species:S:1:pos:R:3:force:R:3 Virial="5.29732000 0.80318000 -2.12523000 0.80318000 2.90643000 -0.59645000 -2.12523000 -0.59645000 0.18058000" pbc="T T T" Config_type=POSCAR_3100_MD_300K_SCF weight=1.0
Mo      4.74254000     10.12430000      5.47565000      0.05916800      0.13353000      1.26035600
Mo     -1.56304000     10.06690000      5.48460000     -0.19967300      0.47643800      0.84173100
Mo      1.59137000      4.49077000      5.66400000      0.23928800      0.76484200     -0.32520700
Mo     -3.19306000      7.37062000      5.47909000      0.16115300     -0.13682100      0.28369200
Mo      0.04152000      7.23881000      5.78430000     -0.30850900      1.01107100     -1.49209200
Mo     -1.59834000      4.57333000      5.42929000      0.27055300     -0.20040100      0.92491300
Mo     -0.03301000      1.81779000      5.70433000      0.50931000     -0.04420300     -0.99987400
Mo      1.59420000     10.13420000      5.60289000     -0.73705500     -0.55479900     -0.14619000
Mo     -4.76999000     10.14530000      5.73926000      0.09039900     -0.42721000     -1.68254500
Mo      6.39496000      1.90461000      5.64679000     -0.26155000     -0.76251700     -0.95724700
Mo      3.21751000      1.82121000      5.43522000     -0.07535500     -0.13747800      1.42778500
Mo      3.15506000      7.33264000      5.57988000      0.11934300      0.12491400      0.35216200
Mo      7.96618000      4.66688000      5.72229000     -0.08940100     -0.32435900     -1.64423700
Mo      9.50343000      1.88687000      5.54049000      0.69124600     -0.66325900      0.30107500
Mo      4.78370000      4.62788000      5.58464000      0.17063300      0.11707500     -0.16422100
Mo      6.37843000      7.40192000      5.59639000     -0.50970300      0.22768900     -0.22001100
S      3.16258000      9.23641000      7.09619000      0.33131300     -0.45585000      0.12323500
S      4.76567000      0.87722000      7.04759000      0.02715200      0.10608100      0.10238600
S      6.36840000      3.76386000      7.23470000     -0.22430400     -0.31168700     -0.04814800
S      3.16602000      3.72914000      4.00291000      0.29767500     -0.16992900     -0.15664500
S      6.42499000      3.72365000      4.10535000     -0.20700700      0.16850400     -0.06056500
S      1.50548000      6.32141000      4.12683000      0.64881000      0.23219400      0.14574700
S      1.65008000      6.29924000      7.32827000      0.08178300      0.32584100     -0.88297800
S      7.97835000      0.98124000      7.15942000     -0.05178900     -0.23563600      0.16624600
S      4.86470000      0.91397000      3.93848000      0.07609500      0.12789500      0.25580100
S      7.93051000      0.89788000      4.04745000     -0.17503600      0.46343100     -0.25527800
S      3.26383000      3.54974000      7.09635000     -0.17858200      0.34968900      0.20999300
S      3.14546000      9.19643000      3.96828000     -0.23683000     -0.25714400      0.21100100
S     -1.70639000      6.34420000      7.05584000      0.19334000     -0.05502300      0.67350700
S      0.02200000      8.99680000      4.10376000      0.54029300      0.56120900     -0.08937400
S      6.45190000      9.26305000      4.06060000     -0.23144900     -0.28581100     -0.11805300
S      6.26231000      9.26972000      7.16311000      0.29056000     -0.36387900      0.05362000
S     11.14830000      1.00795000      4.03179000     -0.13198800     -0.31062200     -0.23245600
S     11.08900000      0.85446000      7.12586000     -0.42944300      0.30281800      0.11416600
S      9.40710000      3.73256000      3.98150000      0.51846700     -0.03694000      0.11319400
S      9.66571000      3.67658000      7.07221000     -0.59240900      0.26026500      0.72229900
S      7.90152000      6.39345000      4.03419000      0.25823500      0.36130100     -0.02733300
S     -0.06563000      9.21824000      7.20426000      0.63831700     -0.17665700     -0.35475300
S      7.97623000      6.58068000      7.15955000      0.18383100     -0.32377100      0.18223700
S     -3.06849000      9.11955000      7.09177000     -0.46943300      0.45674700      0.36190000
S      1.47679000      0.87892000      4.10505000      0.55420700     -0.00261900     -0.32423000
S      1.72121000      0.98026000      7.18229000     -0.45854200      0.06076600      0.18258800
S      0.08574000      3.52276000      4.02685000     -0.46048500      0.65817900      0.11664200
S     -0.09159000      3.68876000      7.15038000      0.03756300     -0.07917200      0.23839700
S     -1.44089000      6.48372000      3.99913000     -0.73339700     -0.20294200      0.07075100
S      4.79531000      6.51368000      3.97633000     -0.27190800     -0.41345100      0.64633400
S     -3.26919000      9.28886000      3.99639000      0.21583600     -0.43912800      0.08087300
S      4.78379000      6.46264000      7.13182000     -0.17072100      0.08083000      0.01880800
48
Lattice="12.737093000 -0.000000000 0.000000000 -6.368546700 11.030646000 0.000000000 0.000000000 0.000000000 50.000000000" Energy=-347.688641640 Properties=species:S:1:pos:R:3:force:R:3 Virial="6.10772000 0.30094000 -0.27513000 0.30094000 3.16296000 2.72688000 -0.27513000 2.72688000 1.07528000" pbc="T T T" Config_type=POSCAR_3500_MD_300K_SCF weight=1.0
Mo      4.81811000     10.09470000      5.45861000     -0.34994100      0.32656800      1.30977900
Mo     -1.58846000     10.10460000      5.55923000      0.41123900      0.32883900      0.28348600
Mo      1.54382000      4.58262000      5.59517000      0.32722900      0.30034500     -0.10125800
Mo     -3.20566000      7.35404000      5.42906000      0.00924800      0.16060300      1.49087600
Mo      0.00012000      7.36947000      5.79323000     -0.00633000     -0.00466000     -1.60827100
Mo     -1.64800000      4.63821000      5.45060000      0.25567900     -0.14427300      1.17578400
Mo      0.00813000      1.84414000      5.73758000     -0.40111300      0.32117100     -1.16176700
Mo      1.64632000     10.10890000      5.60633000     -0.36280300     -0.02380900     -0.24601600
Mo     -4.77123000     10.14280000      5.75449000     -0.22190800     -0.12067700     -2.04965700
Mo      6.38827000      1.81182000      5.64739000      0.05130800      0.25877700     -0.64094300
Mo      3.18780000      1.84453000      5.43174000     -0.10547900     -0.10522300      1.02173000
Mo      3.20245000      7.33253000      5.54085000     -0.03855600      0.08936500      0.39492400
Mo      7.93423000      4.58312000      5.75645000     -0.27587800     -0.36375400     -1.54960600
Mo      9.57651000      1.84177000      5.53109000     -0.25320800      0.09963600      0.69157400
Mo      4.75408000      4.58978000      5.57374000      0.12072000     -0.11413300      0.13833000
Mo      6.38129000      7.33544000      5.58518000     -0.20548900     -0.09377500      0.19361200
S      3.28005000      9.18774000      7.05580000     -0.16495100     -0.21441700      0.34757200
S      4.73823000      0.92874000      7.05967000     -0.19846400     -0.23915200      0.44705800
S      6.25286000      3.63316000      7.26129000      0.49976400      0.19361100     -0.40027000
S      3.15426000      3.73656000      3.93107000     -0.06021400     -0.08932200      0.41262700
S      6.41651000      3.63599000      4.12272000     -0.26671300      0.29044100     -0.03028400
S      1.47950000      6.46935000      4.10911000      0.46803600     -0.22037100     -0.02653600
S      1.65136000      6.39534000      7.21609000      0.06407800      0.06457800     -0.11035800
S      8.06118000      0.91574000      7.13963000     -0.39521400      0.08074100      0.27330200
S      4.84987000      0.95241000      3.94526000     -0.03403500     -0.48249500      0.38995600
S      7.95310000      0.91252000      4.04408000      0.10007900     -0.12675100     -0.20619500
S      3.16531000      3.58319000      7.05666000     -0.07719900      0.58509900      0.24204100
S      3.17202000      9.19676000      3.94941000      0.16989600     -0.23885000      0.11504600
S     -1.74610000      6.38489000      7.07951000      0.48317800      0.39081200      0.35901900
S      0.05919000      9.09604000      4.12635000     -0.26895500      0.54472100     -0.12565000
S      6.49887000      9.18530000      4.04558000     -0.25736300     -0.02919700     -0.07728000
S      6.30337000      9.18027000      7.14770000      0.13664800      0.01281500      0.18038600
S     11.22710000      1.01556000      4.06125000     -0.03211400     -0.52615100     -0.55238200
S     11.07360000      0.84349000      7.15248000      0.54721200      0.12440700     -0.20887200
S      9.42217000      3.71981000      4.02077000      0.21996500     -0.14244800     -0.13482100
S      9.63580000      3.65815000      7.09706000     -0.27671300     -0.03659900      0.57146800
S      7.90527000      6.29726000      4.06145000      0.06524100      0.40783300     -0.42877800
S      0.02701000      9.29801000      7.24764000     -0.12855000     -0.30742500     -0.30764900
S      8.02880000      6.49785000      7.15388000     -0.43670000     -0.02614500      0.04435300
S     -3.16593000      9.08328000      7.10019000      0.36937100      0.43695900      0.50872700
S      1.46907000      0.88188000      4.07357000      0.55185600      0.16908400      0.21727700
S      1.72971000      1.01226000      7.21450000     -0.50517600     -0.24438100     -0.07215400
S     -0.03935000      3.63578000      4.05661000      0.38103700     -0.15390000     -0.28215800
S     -0.13977000      3.78855000      7.14306000      0.55864600     -0.33310800      0.08469000
S     -1.46683000      6.56827000      3.99633000     -0.45664800     -0.46794000     -0.05615600
S      4.80802000      6.40394000      3.98089000     -0.16286500      0.17189600      0.30006500
S     -3.25676000      9.31891000      4.04666000      0.18010700     -0.43976200     -0.31278100
S      4.77439000      6.42669000      7.16320000     -0.02796000     -0.06958500     -0.50384200
48
Lattice="12.737093000 -0.000000000 0.000000000 -6.368546700 11.030646000 0.000000000 0.000000000 0.000000000 50.000000000" Energy=-347.671381770 Properties=species:S:1:pos:R:3:force:R:3 Virial="2.64575000 1.85198000 0.54140000 1.85198000 6.21409000 -1.28301000 0.54140000 -1.28301000 0.42993000" pbc="T T T" Config_type=POSCAR_4400_MD_300K_SCF weight=1.0
Mo      4.73390000     10.11750000      5.47080000      0.51396500     -0.18579100      0.85165500
Mo     -1.65968000     10.10110000      5.74014000      0.36746100      0.29598000     -1.76096900
Mo      1.59765000      4.62983000      5.45380000      0.15393700     -0.35626000      1.48346900
Mo     -3.19089000      7.31467000      5.47347000     -0.04906800      0.24778000      0.95983700
Mo      0.01357000      7.38527000      5.64054000     -0.44147600     -0.35432900     -0.28791900
Mo     -1.55623000      4.61897000      5.50670000     -0.28618400     -0.34180600      0.68320400
Mo      0.01438000      1.84958000      5.68590000      0.00529800      0.00109100     -0.82381200
Mo      1.57405000     10.12570000      5.44429000      0.17260100     -0.23331500      1.35233000
Mo     -4.80802000     10.10440000      5.69548000      0.18776600      0.08619100     -0.86628800
Mo      6.36274000      1.79253000      5.48335000     -0.02291800      0.37916500      0.73440400
Mo      3.19605000      1.86636000      5.48611000     -0.24801800     -0.23239700      1.08678600
Mo      3.21614000      7.35969000      5.74564000     -0.34668300     -0.08605900     -1.24746600
Mo      7.96116000      4.57617000      5.70236000     -0.01257000     -0.20439300     -0.84110000
Mo      9.57929000      1.83740000      5.73783000     -0.30314700      0.20312600     -0.99128600
Mo      4.79274000      4.59774000      5.69494000     -0.00010500     -0.14955400     -0.85173200
Mo      6.39016000      7.34327000      5.47277000     -0.27353700     -0.23679900      1.09723300
S      3.15756000      9.30976000      7.08931000     -0.10280600     -0.27369900      0.20157700
S      4.76526000      1.00370000      7.12785000     -0.14760800     -0.22751700     -0.10616000
S      6.35381000      3.51450000      7.18004000      0.19675100      0.63053100      0.04535600
S      3.27714000      3.74579000      3.97892000     -0.17727400     -0.23336800     -0.03079400
S      6.38569000      3.74536000      4.07987000     -0.17422500     -0.44108400      0.00696600
S      1.65822000      6.54271000      4.10234000     -0.27217100     -0.01750100     -0.51097100
S      1.56051000      6.37225000      7.18783000      0.23791800      0.23501400     -0.03223600
S      7.88154000      0.84246000      7.09189000      0.27162100      0.29475700      0.18882600
S      4.73426000      0.81534000      3.98033000      0.20675700      0.16639800      0.28676700
S      8.08147000      0.99518000      3.99291000     -0.38949700     -0.24465400     -0.05513300
S      3.10401000      3.68203000      7.07987000      0.21148200      0.00995500      0.21693500
S      3.15914000      9.04987000      3.97559000      0.17340400      0.58747700      0.15021000
S     -1.67266000      6.41865000      7.07668000      0.62049800      0.21917900      0.19625900
S     -0.11418000      9.17970000      4.08052000      0.01872300      0.26587400     -0.34972800
S      6.41611000      9.22276000      3.97671000     -0.14264300      0.01331800      0.03607500
S      6.24355000      9.13958000      7.07756000      0.40196700      0.23034600      0.10811600
S     11.11140000      1.04452000      4.10599000      0.30958800     -0.48997500     -0.36090000
S     11.20540000      0.79902000      7.19590000     -0.28741000      0.49607700      0.05730500
S      9.50335000      3.64415000      4.13005000      0.23605500     -0.00976100     -0.23497400
S      9.64389000      3.72845000      7.22700000     -0.12208200     -0.10488300     -0.11030500
S      7.95558000      6.28008000      3.95629000      0.12689500      0.56604000      0.28067600
S      0.04298000      9.27562000      7.15362000      0.07880800     -0.52872500      0.25131700
S      7.96737000      6.48682000      7.09214000     -0.06156400     -0.07756400      0.13875600
S     -3.25273000      9.08695000      7.23369000      0.14406400      0.07225200     -0.36677500
S      1.51095000      0.87879000      4.09752000      0.37222000      0.14262900     -0.24524400
S      1.69663000      0.99566000      7.20605000     -0.42212500     -0.37693600     -0.31151100
S      0.01936000      3.60209000      3.96822000     -0.09958800      0.25178800      0.08526600
S      0.03901000      3.77663000      7.07382000     -0.09214000     -0.21518200      0.37421700
S     -1.48993000      6.44983000      3.95029000     -0.33875000      0.07224500      0.23733000
S      4.68342000      6.37908000      4.11330000      0.55417500      0.37399200     -0.30930600
S     -3.19290000      9.23773000      4.10216000     -0.32631200     -0.00307900     -0.18942900
S      4.91901000      6.47357000      7.22494000     -0.42205600     -0.21656900     -0.22683600
48
Lattice="12.737093000 -0.000000000 0.000000000 -6.368546700 11.030646000 0.000000000 0.000000000 0.000000000 50.000000000" Energy=-347.721252030 Properties=species:S:1:pos:R:3:force:R:3 Virial="4.10457000 1.26242000 -1.19593000 1.26242000 3.64491000 -1.59705000 -1.19593000 -1.59705000 0.35366000" pbc="T T T" Config_type=POSCAR_2500_MD_300K_SCF weight=1.0
Mo      4.75949000     10.16840000      5.73374000      0.39215500     -0.33209200     -1.51576300
Mo     -1.50541000     10.03720000      5.55627000     -0.73245200      0.73938100      0.11554200
Mo      1.60034000      4.53869000      5.54949000      0.12336300      0.54027600      0.27840600
Mo     -3.22163000      7.36792000      5.66939000      0.03046700      0.32490300     -0.81921100
Mo     -0.02719000      7.23865000      5.46459000      0.51073600      0.57216100      0.79902200
Mo     -1.66011000      4.57141000      5.73684000      0.62691000      0.00429300     -1.67125800
Mo      0.05923000      1.87936000      5.41902000     -0.19298000     -0.35514900      1.74737800
Mo      1.55316000     10.10530000      5.61847000      0.90019200     -0.14575400     -0.33786700
Mo     -4.79385000     10.09870000      5.50668000      0.13097900      0.24567900      0.89076100
Mo      6.43069000      1.89501000      5.62290000     -0.44048300     -0.70116200     -0.27395500
Mo      3.30301000      1.75010000      5.77394000     -0.60327600      0.45966500     -1.50633100
Mo      3.17184000      7.41300000      5.62579000      0.11461400     -0.71002300     -0.22043900
Mo      7.89074000      4.67889000      5.54364000      0.59169400     -0.35501700      0.34219200
Mo      9.56348000      1.82629000      5.52035000     -0.25016400      0.78867300      0.34813600
Mo      4.75363000      4.61699000      5.51917000     -0.22908500      0.01797800      0.35441100
Mo      6.30653000      7.38196000      5.60051000      0.15068300      0.16475900     -0.02532100
S      3.16470000      9.25129000      7.27446000     -0.28501300     -0.20589300     -0.41777600
S      5.01294000      0.80615000      7.25723000     -0.85333200      0.16932500     -0.52767500
S      6.30334000      3.77461000      7.07717000      0.39219700     -0.09162700      0.69697900
S      3.17578000      3.52725000      4.09637000      0.35381900      0.01862700     -0.27512000
S      6.39148000      3.66953000      3.98137000     -0.36239400      0.39822200     -0.07149100
S      1.70760000      6.35875000      3.96748000     -0.62086400      0.34847000      0.26616900
S      1.56214000      6.41273000      7.07672000     -0.05889500     -0.25867800      0.16108700
S      8.02386000      0.95164000      7.11620000     -0.03170800     -0.11124500      0.45849200
S      4.86711000      0.92985000      4.08922000     -0.28416700     -0.21480500      0.29431200
S      7.88683000      0.90018000      4.02600000      0.72532900      0.07069700     -0.16211500
S      3.21993000      3.69816000      7.17676000     -0.03553300     -0.14460800     -0.10167000
S      3.20732000      9.25633000      4.12443000     -0.21263600      0.11356100     -0.15063000
S     -1.58150000      6.41648000      7.18175000     -0.06639900      0.34778900      0.31598700
S      0.04602000      9.12602000      3.96926000     -0.07371600     -0.02866900     -0.08283800
S      6.20917000      9.21952000      4.04151000      0.68898400      0.01643000      0.28054000
S      6.42453000      9.22178000      7.18272000     -0.34080700     -0.08645300     -0.10180200
S     11.20670000      0.87446000      3.99921000     -0.59027700      0.00755300     -0.19037600
S     11.22190000      1.07413000      7.07402000     -0.16214300     -0.16013400      0.42261800
S      9.57272000      3.74620000      4.06253000     -0.43270700     -0.36150700     -0.13104000
S      9.38088000      3.68388000      7.15524000      0.49287900     -0.35339700      0.00520400
S      7.95193000      6.54629000      4.03680000     -0.40332300     -0.20251800      0.00906600
S      0.02388000      9.02395000      7.05280000     -0.23488900      0.14115400      0.68329600
S      7.90304000      6.49843000      7.16624000     -0.17714300     -0.37524900      0.20650700
S     -3.18198000      9.25554000      7.10299000      0.03195300     -0.01343800      0.29681700
S      1.77850000      0.91944000      4.03191000     -0.26684600      0.08358700     -0.11064800
S      1.49092000      0.92898000      7.12792000      0.75889900     -0.44867900     -0.23127200
S     -0.10131000      3.76143000      3.99534000      0.33383800      0.04493300      0.08218400