64
Lattice="30.000000000 0.000000000 0.000000000 0.000000000 13.057705000 0.000000000 0.000000000 0.000000000 30.000000000" Energy=-498.359261830 Properties=species:S:1:pos:R:3:force:R:3 Virial="-11.43516000 5.35331000 0.41909000 5.35331000 0.72446000 0.39817000 0.41909000 0.39817000 -1.65297000" pbc="T T T" Config_type=POSCAR_addH_0.9_599_SCF weight=1.0
B     20.70242000      1.40067000     14.92427000      0.78841200      1.41263700     -0.75359900
B     19.39618000      3.55045000     14.72876000      0.75272000      1.39664100     -0.15785700
B     18.19234000      5.80000000     14.83885000     -1.51930500      0.11087800     -0.54145100
B     16.92166000      7.95820000     14.98183000     -0.65509500      0.61997300      0.07844700
B     15.63957000     10.17627000     15.14004000      0.19833200      0.17687600     -0.49917400
B     14.35568000     12.36671000     15.09952000      1.33796600      0.36301600     -0.19071400
B     10.53016000      1.47588000     15.03479000      1.13004600      3.30844800      0.21349300
B     20.63007000      5.75922000     15.12020000      0.21152100      0.18411200     -0.45269600
B     19.48232000      7.98076000     14.97523000     -1.11710600      0.34473300      0.36334500
B     18.16513000     10.11285000     15.06275000      0.31725100      1.52686100     -0.65742300
B     16.87637000     12.38278000     15.02128000      0.60901600     -0.63549200     -0.13062900
B     13.09144000      1.46809000     15.01007000      0.40672300      0.17112900      0.94295500
B     11.78315000      3.59234000     15.35271000      0.42677500      1.06130600     -0.72829300
B     10.54292000      5.76536000     15.15233000     -0.40819400      0.49943400      0.72364000
B     20.68064000     10.18746000     14.51143000     -1.37411400     -1.90492700      0.68549700
B     19.38727000     12.30684000     14.80717000     -0.23257900     -0.20768500     -0.22975200
B     15.63140000      1.49019000     14.87027000     -0.50709500      0.11067500      0.65222100
B     14.35745000      3.63935000     15.17344000     -0.28089900     -0.27117100     -0.89251500
B     13.08918000      5.80675000     15.26993000     -0.69922600     -0.08496100     -0.40676600
B     11.83923000      7.92468000     15.01170000      0.46819800      0.83419300      0.33740300
B     10.76523000     10.26047000     15.17363000      0.05721800     -1.51707600     -0.09369000
B     18.15084000      1.44090000     14.76254000     -0.13579800      0.65540500      0.07733100
B     16.88687000      3.65950000     14.71151000     -0.95128800     -0.08825800      0.69958100
B     15.62667000      5.80817000     14.98675000     -0.73632700      0.38935400      0.33237600
B     14.39490000      7.97631000     15.09147000     -0.71726800      0.36796400      0.26862600
B     13.14302000     10.18501000     15.07410000     -0.67388700     -0.69159300      0.86103600
B     11.86552000     12.36411000     15.18104000     -0.22269600      0.69947500     -0.54770600
N     20.67004000      2.85214000     14.78587000     -4.42902600     -3.42132400     -0.14504500
N     19.41548000      5.03859000     14.75528000      0.48008200      0.16051800      0.88831100
N     18.17471000      7.26400000     14.90200000      1.28192500     -0.39516200      0.16710700
N     16.89432000      9.41163000     15.04417000      0.10723800      0.40840500      0.50115600
N     15.64230000     11.66177000     15.07214000     -1.17829200     -1.59250500      0.44249100
N     11.83223000      0.74142000     14.94875000     -0.70714800     -1.10344100      0.58772400
N     10.57734000      2.94057000     15.16200000     -0.38683700     -3.66100100     -0.01831100
N     20.66393000      7.18421000     15.21877000     -4.80733000     -2.01299400     -0.89096000
N     19.48455000      9.46726000     14.92504000     -0.73441900     -1.59914000     -0.02461500
N     18.12000000     11.60706000     15.06626000      1.03489500     -0.15971100     -0.33209900
N     14.38159000      0.75110000     15.05148000     -0.61026800      0.06820200     -0.63460300
N     13.09287000      2.88751000     15.24734000      0.49111600      0.64173200     -0.07194700
N     11.79322000      5.09051000     15.38168000      1.23924200      0.07939600     -0.16616500
N     10.61888000      7.21707000     14.95182000     -0.23984700     -1.32278800     -0.30061900
N     20.58014000     11.53368000     14.42475000     -5.72665200     -0.07404400      1.82594500
N     16.87871000      0.75955000     14.85240000      0.54862600     -0.38474900     -0.08952700
N     15.62045000      2.94503000     14.86125000     -0.18700000     -0.29130200      0.08285900
N     14.35442000      5.09730000     15.18953000      0.49356500     -0.21115900      0.11157100
N     13.12446000      7.27125000     15.10790000     -0.44992400     -0.76397900      0.18109700
N     11.81818000      9.40774000     15.07154000      1.48206300     -0.17019800     -0.48385000
N     10.60218000     11.56301000     15.36027000     -0.83514000      2.87640200     -0.37639100
N     19.42678000      0.72280000     14.81779000      0.12978600     -0.79252900      0.16846700
N     18.11790000      2.90419000     14.65865000      0.78671000     -0.87801000     -0.00944100
N     16.86546000      5.10600000     14.79839000      1.50162800     -0.08437800     -0.04262400
N     15.64022000      7.27935000     15.03566000      0.37498400     -1.12933900     -0.19181200
N     14.35980000      9.43152000     15.16652000      0.81462800      0.75434100     -0.50805400
N     13.11779000     11.62797000     15.15720000     -0.67251500     -0.40725600     -0.12003800
H      9.49369000      0.91864000     14.99845000     -0.58881600     -0.57825300     -0.06210800
H      9.43397000      5.21052000     15.28648000      0.92924600      0.44302700     -0.38791700
H      9.76464000      7.67208000     14.65623000     -0.12751100      0.25160500      0.23239800
H      9.71855000     12.08900000     15.18560000      0.78259200     -0.32711500      0.37248200
H     21.86261000      0.90742000     15.00082000     -1.27458300      0.02988700      0.09181400
H     21.42989000      3.38708000     14.92857000      3.46373400      2.14663300      0.49260000
H     21.67253000      5.20563000     15.29524000      0.16257900     -0.22322900      0.04928800
H     21.44300000      7.69595000     15.26661000      4.22081900      2.05429500      0.48159600
H     21.67409000      9.65492000     14.24162000      0.90242300     -0.67925000     -0.18550000
H     21.32488000     12.00994000     14.20728000      5.25412600      3.51646700     -1.58896700
64
Lattice="30.000000000 0.000000000 0.000000000 0.000000000 13.057705000 0.000000000 0.000000000 0.000000000 30.000000000" Energy=-495.470035270 Properties=species:S:1:pos:R:3:force:R:3 Virial="-2.55282000 -8.47086000 4.64914000 -8.47086000 -4.21036000 2.41188000 4.64914000 2.41188000 -5.51296000" pbc="T T T" Config_type=POSCAR_addH_0.9_1199_SCF weight=1.0
B     20.68674000      1.41135000     14.74639000     -4.45153200      1.75453100     -0.17209200
B     19.41593000      3.64316000     14.64575000     -2.10196600     -0.53832300     -0.26969300
B     18.14994000      5.79115000     14.42220000     -1.69123500      0.79628000      0.37332600
B     16.88905000      7.97926000     14.70999000     -1.42722000      0.56185100      0.79341800
B     15.58982000     10.23897000     15.05172000      0.46806500     -2.15481800     -0.29030300
B     14.37632000     12.43302000     15.23254000     -0.08335600     -1.89718500     -0.90217300
B     10.47124000      1.61907000     15.05946000     -1.43362200     -2.11889200     -0.06745800
B     20.55915000      5.87187000     14.59090000      0.13820600      0.21975900      0.31247500
B     19.33303000      8.05674000     14.35540000     -0.06530500     -1.45614700     -0.15377200
B     18.09715000     10.13684000     14.62966000     -0.85121200      0.27659100     -0.03782500
B     16.84626000     12.29834000     15.09736000      0.98922000      2.12324400     -1.53943600
B     12.98978000      1.44582000     15.19921000      1.91888500     -0.41526400      0.83576400
B     11.83717000      3.51011000     15.64774000      0.38180400     -0.32560300     -1.44617500
B     10.73268000      5.68361000     15.39089000     -1.16191400     -0.66936800      1.49038600
B     20.53950000     10.25122000     13.89523000      0.75706200      0.13470600     -1.12001500
B     19.28557000     12.30750000     14.69803000      0.62360100      1.89395900     -0.36643800
B     15.60384000      1.52953000     15.14167000      0.39257900     -0.87455500     -0.80595600
B     14.42440000      3.66421000     15.18103000     -1.97702600     -0.74564000      0.71959100
B     13.17759000      5.74975000     15.74761000      2.32173300     -0.36030500     -2.00786600
B     11.97141000      7.83187000     15.45363000      1.20206800      2.44576200      0.50949400
B     11.03090000     10.27233000     15.74802000     -1.07671200      2.61936700      0.74113100
B     18.08296000      1.46860000     14.80810000      1.83414900      0.61137200      0.10024000
B     16.88368000      3.60930000     14.71211000     -0.00185300      2.68223700     -0.73212000
B     15.66787000      5.75373000     14.91276000      1.12009900      1.59946200     -0.44287100
B     14.43641000      7.93119000     15.32013000      1.26482600      0.23956700     -0.72045200
B     13.17968000     10.13492000     15.16024000      0.81177000      1.11721000      0.80757300
B     11.87406000     12.33855000     15.34698000     -0.03801600      1.20867200      0.26408100
N     20.57433000      2.84622000     14.69321000      2.49159500      0.39796000     -0.34957800
N     19.38478000      5.08556000     14.47306000      0.02701500     -0.27100900     -0.27390800
N     18.11788000      7.26084000     14.53273000      0.40554800      0.65517900     -0.84557700
N     16.78803000      9.47059000     14.83367000      2.75148600     -1.10064300     -0.68078800
N     15.58619000     11.65123000     15.09051000      0.06447600      0.34774100      0.79916700
N     11.70787000      0.70658000     15.14987000      1.13098800     -0.75788400     -0.13655000
N     10.57718000      2.90409000     15.42870000      0.76582300      1.28184200      0.63845300
N     20.54435000      7.28621000     14.44851000      0.09108700     -0.50312700      0.26402500
N     19.32488000      9.46928000     14.15750000     -0.20879300      0.27264300      0.64734400
N     18.08754000     11.56032000     14.87159000     -0.63469200      0.50422100      0.42397100
N     14.35587000      0.76255000     15.32075000     -0.83449900      1.14119000     -0.50083800
N     13.16102000      2.84917000     15.35680000     -0.74044000      1.75604800     -0.02984000
N     11.98273000      4.97194000     15.79811000     -1.88884000      2.03597800     -0.32916800
N     10.80087000      7.16957000     15.29833000      0.27608800     -3.78144300      0.32926500
N     20.44389000     11.61308000     14.27875000      4.53073500      1.08304300     -1.56829500
N     16.86932000      0.75980000     14.95103000     -1.77671500     -1.40646000      1.18045600
N     15.63584000      2.98339000     14.95345000      0.18261600     -2.62660800      0.21483500
N     14.49690000      5.09959000     15.32112000     -3.05282900     -0.90393400      1.10376000
N     13.21435000      7.22484000     15.64056000      0.54809100     -1.00201800      0.30738700
N     11.93129000      9.35668000     15.41889000     -0.08565500     -0.85665900     -0.40020600
N     10.69467000     11.59239000     16.04522000      1.83599200     -2.15871200     -1.50884000
N     19.35664000      0.73676000     14.74414000      0.64700400     -0.77187800      0.35940300
N     18.11617000      2.93573000     14.73812000      1.26890700     -0.98234600     -0.03639600
N     16.87159000      5.09324000     14.42587000     -0.09313000     -1.42436900      1.19493600
N     15.68412000      7.21591000     14.98479000     -1.21109200      0.77583000      0.34838200
N     14.40217000      9.41262000     15.18360000     -0.75546500     -0.27785800     -0.01019400
N     13.15794000     11.61265000     15.12132000     -2.07454300     -0.35532700      0.71036400
H      9.27986000      1.07997000     14.67870000      1.85761900      0.35235500      0.50086800
H      9.61611000      4.93876000     15.37817000      1.95668000      1.75500800     -0.34826900
H     10.06953000      7.73043000     15.03254000     -2.72928700      1.09808600     -0.78332200
H      9.83164000     12.10022000     16.09319000     -0.65911400      0.23487300     -0.00214200
H     21.66001000      0.87900000     14.78053000      2.22026900     -1.12849000      0.05001500
H     21.43821000      3.42392000     14.55158000     -0.70207600     -0.88556300      0.37174200
H     21.47698000      5.23745000     14.94867000      1.17799500      0.18752500      0.06547600
H     21.36313000      7.75724000     14.78248000      0.71044700      0.38204300     -0.29741500
H     21.64503000      9.92911000     13.16893000     -2.03018900      0.01215200      1.51664600
H     21.38308000     12.21669000     13.97179000     -3.32619600     -1.80786300      1.20199400
64
Lattice="30.000000000 0.000000000 0.000000000 0.000000000 13.057705000 0.000000000 0.000000000 0.000000000 30.000000000" Energy=-489.125103210 Properties=species:S:1:pos:R:3:force:R:3 Virial="8.87141000 -19.00528000 -10.99311000 -19.00528000 -16.67343000 22.68673000 -10.99311000 22.68673000 1.77869000" pbc="T T T" Config_type=POSCAR_addH_0.9_2999_SCF weight=1.0
B     19.43425000      1.63694000     11.93070000     -1.51004900     -1.72213400      0.27364000
B     18.21954000      3.67355000     12.38376000      0.12369400      6.10533100      0.58267000
B     17.53361000      5.90309000     13.31514000     -2.88386800     -0.13451000      1.51678800
B     16.46722000      7.99255000     14.11013000      2.71680900      0.69262700      0.42016400
B     15.73093000     10.16128000     14.83406000     -0.38510700      3.18473700      1.29455200
B     14.74204000     12.26818000     15.85588000     -0.60562200      1.96567600     -0.71820800
B     11.57291000      1.41031000     17.88412000      2.04387100      3.60959000      0.87884800
B     19.53056000      5.86997000     11.99988000      1.31026200      0.04832600      0.88390600
B     18.92594000      7.90119000     13.22485000     -0.12630000     -1.21634300     -0.01343400
B     17.86425000     10.08287000     13.77825000      6.35699800      1.77589600     -0.61931600
B     16.90322000     12.40259000     14.47337000     -1.46534000      1.19721200      1.23476900
B     13.70260000      1.46586000     16.53256000     -3.09801100     -2.09584700      2.87628400
B     12.66063000      3.49287000     17.44198000     -1.08373700      0.27309700      2.27490600
B     11.74505000      5.56908000     18.06486000      0.50165900      3.14439500      0.52360500
B     20.00241000     10.09899000     12.45292000      0.92481100     -1.19660100     -1.41474100
B     18.87025000     12.29180000     13.03246000      0.56296300      0.47628000      0.99491500
B     15.46064000      1.57648000     15.01248000      2.86251600     -2.75401900      0.60356700
B     14.53095000      3.69163000     15.91796000      1.34065200     -2.39027000     -3.04959000
B     13.69974000      5.84215000     16.59625000     -0.27458000     -1.98283400     -1.51484200
B     12.33420000      7.82264000     17.03220000      2.01153100      1.98259400     -1.10425500
B     11.77849000     10.25801000     17.53444000      0.35465600      0.89910500      0.94011400
B     17.73633000      1.67655000     13.66562000     -3.81271800     -3.17442400      0.48478100
B     16.33972000      3.78660000     14.00474000      1.09539800     -0.19491900      1.32711000
B     15.37215000      5.84240000     14.76370000     -0.07059600      1.66820500      1.94424400
B     14.48984000      8.00149000     15.56500000     -2.02200200      1.49033700     -1.27943400
B     13.54842000     10.13000000     16.05618000      0.05709400     -0.41671300      0.20781800
B     12.76742000     12.30456000     17.18687000     -2.43399100      0.91598400      2.37112000
N     19.02270000      2.99142000     11.58472000      6.63169500     -3.49921200     -5.16405000
N     18.36352000      5.19920000     12.46263000      0.00825800     -1.98183800     -0.95140900
N     17.62506000      7.27581000     13.59607000      0.86517900      1.67445100     -0.56748100
N     16.81451000      9.46507000     14.27316000     -5.34949000     -4.18878500      0.94623700
N     15.84249000     11.68785000     15.15749000     -0.95373500     -3.45266300     -0.57925000
N     12.68555000      0.64867000     17.30069000      1.46839000     -0.10034700     -0.74018900
N     11.76518000      2.83363000     18.30313000     -1.25808800     -2.60425100     -1.63027600
N     19.98506000      7.02874000     12.70520000      0.20673000      2.49450800     -0.69448400
N     19.14312000      9.29666000     13.31587000     -2.35531600      3.02142500     -0.11037600
N     17.97756000     11.52844000     13.95778000      0.43129600      2.77678100     -2.26899600
N     14.64166000      0.68771000     15.92238000      2.64887400      0.24958300     -2.99320900
N     13.57986000      2.84712000     16.61051000      2.82763500      1.25558300     -2.18848600
N     12.81968000      4.98880000     17.35415000     -1.33696000      1.02526200      0.86675800
N     11.46589000      7.08117000     17.82670000      0.30597600     -1.61810300     -0.20109200
N     19.97020000     11.49548000     12.34880000     -1.00444500      6.37846100     -1.16963100
N     16.64689000      0.85221000     14.47850000      2.81127200      0.20155100     -1.92715000
N     15.45505000      3.00800000     14.89656000     -0.93799500      0.43220400      0.39704100
N     14.67304000      5.07144000     15.78600000     -1.29297700      3.40719300      0.80762200
N     13.47664000      7.24907000     16.32472000      0.18817200      0.28914100      1.01545200
N     12.48587000      9.38588000     16.83712000     -0.84581200     -2.72764400     -0.60542800
N     11.78032000     11.41911000     18.18837000     -0.13286900      0.69481400     -1.09091900
N     18.63113000      0.80863000     12.93851000      2.98715900     -0.12063200     -1.69610300
N     17.46907000      3.05154000     13.32163000     -2.95893900     -1.05605700      3.01798700
N     16.37361000      5.30476000     14.01879000      1.69438800     -5.21470500     -2.53838600
N     15.33263000      7.34137000     14.70968000      1.68176300     -2.66615700     -0.62892600
N     14.53246000      9.46770000     15.19869000     -2.57387000     -0.17153900      3.52549900
N     13.55876000     11.51372000     16.37895000      3.16579400      0.16514000     -1.72234200
H     10.75468000      0.63599000     17.70303000     -2.82322600     -0.39486100      0.83615500
H     11.30344000      5.24657000     19.09142000     -0.72517500     -0.72066800      0.30895600
H     10.76039000      7.44186000     18.44674000     -0.25049300      0.35559900      0.05076200
H     10.94166000     11.92574000     18.44623000     -0.15866000      0.55767900      0.31871800
H     20.29355000      1.02523000     11.29310000     -0.13257100      0.54005000      0.16158500
H     19.78965000      3.38070000     10.81685000     -2.86635300     -0.58135100      2.67022700
H     20.26316000      5.35615000     11.25584000      0.51987300     -0.34558900     -0.91670800
H     20.79432000      7.69483000     12.40381000     -1.47127200     -2.03498400      0.27181000
H     20.70842000      9.59230000     11.57480000     -0.03459300     -0.25760600      0.70562800
H     20.49130000     12.34478000     11.59221000     -1.47060800     -3.93321200      2.56447600
64
Lattice="30.000000000 0.000000000 0.000000000 0.000000000 13.057705000 0.000000000 0.000000000 0.000000000 30.000000000" Energy=-493.418759030 Properties=species:S:1:pos:R:3:force:R:3 Virial="4.49590000 -4.96899000 -0.39074000 -4.96899000 5.93279000 3.68228000 -0.39074000 3.68228000 -4.40306000" pbc="T T T" Config_type=POSCAR_addH_0.9_1799_SCF weight=1.0
B     20.59306000      1.35123000     14.13097000      0.37974900      0.94928100     -1.10187900
B     19.33873000      3.65475000     14.11263000      0.65669700     -1.35682000      0.20372400
B     18.06533000      5.80683000     14.13314000     -0.34666400     -0.31425500      0.95833700
B     16.71499000      8.00504000     14.52077000      1.11413800     -0.89748600     -1.88341600
B     15.61156000     10.19944000     15.03097000     -0.24964100      0.11139000     -0.96505000
B     14.50350000     12.33117000     15.38573000     -0.43726100      3.04152000      0.34100700
B     10.62895000      1.49533000     16.10145000      2.76228900      1.16791700     -0.51018500
B     20.47713000      5.89089000     13.52937000     -0.10634200     -3.16332300     -0.07070200
B     19.12682000      7.96472000     13.88049000      1.76355400      0.50431800     -1.13365100
B     17.82379000     10.15834000     14.05431000      2.78413600      0.67134600      0.82728200
B     16.78149000     12.48519000     14.46208000      0.69894800     -1.64646700     -0.01380000
B     13.17577000      1.44967000     15.61729000      1.69230100      0.35969800      1.19134100
B     11.89858000      3.55619000     15.93482000      2.07044300      1.20504600     -1.04321800
B     10.76744000      5.77868000     16.23720000      2.48373500     -2.80447600     -1.47944900
B     20.34395000     10.07158000     14.38381000     -1.69762100      0.42343200     -0.61263600
B     19.12667000     12.27880000     14.38866000      5.69298600      1.96082700     -0.69931600
B     15.70724000      1.57858000     14.87569000     -3.07640000     -1.70161000      1.15577800
B     14.42006000      3.63264000     15.38501000     -0.31550300     -0.61162700     -0.07688500
B     13.27446000      5.77593000     15.73931000     -0.79184900      1.08594000     -0.96207800
B     11.97393000      7.85443000     15.95825000      0.63745500      0.75054600      2.20296000
B     11.17966000     10.28744000     15.87801000     -0.95866700      0.20692800      0.78540100
B     18.09994000      1.51271000     14.42074000      2.79260800      0.22897400      0.08399400
B     16.88747000      3.69711000     14.74620000      0.38497700     -2.41921900     -0.60278500
B     15.64354000      5.76144000     14.97399000      0.28368000      1.80063300     -0.60357300
B     14.49108000      7.96309000     15.48408000     -3.33905100      2.70307200      0.98347300
B     13.27853000     10.16132000     15.93750000      1.58842400     -0.47721900      0.18682900
B     12.15001000     12.34852000     15.97526000     -1.89462000      0.91785900     -0.70413500
N     20.51655000      2.82698000     13.90139000      3.66107700      0.90949000     -1.66782000
N     19.32564000      5.07215000     13.94750000     -0.46896600      2.02725400     -0.44322700
N     17.92417000      7.26299000     14.01960000     -1.25420500     -1.28184000      1.04363900
N     16.64520000      9.42002000     14.35257000     -0.52534200      1.39558900      0.91158400
N     15.65723000     11.67116000     14.92794000      0.05302200     -0.80768200      0.05526400
N     11.98693000      0.68229000     15.94597000     -0.55538400      0.08607200     -0.14364500
N     10.71840000      2.87348000     15.98832000     -1.50612100     -1.17893100      0.48628400
N     20.38097000      7.25369000     13.49491000      0.85316600      1.56796900     -0.51484900
N     19.08807000      9.37092000     14.02949000      0.12714800      2.61460700     -0.11404200
N     17.97077000     11.67106000     14.13331000     -5.19743600     -2.86481200     -0.36476900
N     14.46333000      0.79211000     15.31983000      0.49706500     -1.77748600     -0.76196800
N     13.24875000      2.87689000     15.80819000     -0.42208900      0.77944200     -0.84499100
N     12.05869000      5.08968000     15.78639000     -3.02253800     -0.50654100      2.05540100
N     10.75559000      7.15897000     16.28903000      5.71303400     -1.40272600     -2.39804900
N     20.33603000     11.48875000     14.44336000      4.31954200      0.70438500      2.30096200
N     16.87081000      0.86900000     14.48354000     -1.70323400     -2.24161200      0.20895800
N     15.64508000      2.97542000     14.94457000      0.21838400      0.69477200      0.49601500
N     14.44563000      5.08668000     15.31763000      0.95730100     -0.58653400      0.66218600
N     13.25306000      7.26566000     15.84086000      0.54188900     -1.33634200     -0.66864400
N     12.05044000      9.33596000     16.23076000     -0.43611600      0.05502900     -1.21128700
N     10.80236000     11.53978000     15.77248000     -0.92006700      1.67423700     -0.06936300
N     19.34484000      0.66257000     14.34917000     -1.65737900      1.76522600      0.48133800
N     18.12775000      2.95185000     14.52556000      0.02264200      0.09534400     -0.37790800
N     16.90181000      5.07211000     14.63666000     -1.03367100      3.13261500     -0.02634200
N     15.53560000      7.32356000     14.90653000      2.76026500     -4.09136100     -0.03887900
N     14.46832000      9.48148000     15.61909000      1.39273300     -1.70394300     -0.72615400
N     13.35734000     11.58873000     15.91696000     -0.98282200      0.31031300     -0.04299900
H      9.70869000      0.80969000     16.30211000     -1.17435900     -0.63777600      0.15638200
H      9.99216000      4.92397000     16.35549000     -1.44169100      0.21667600      0.57589600
H     10.03310000      7.63673000     16.56160000     -5.40144400      3.38437500      1.95609600
H      9.92855000     12.14180000     15.67172000      1.42047400     -0.96097500      0.28057200
H     21.63088000      0.65023000     13.94658000     -0.73039000      1.06745600      0.27665400
H     21.52756000      3.47608000     13.35506000     -3.93183400     -2.64457900      2.38948600
H     21.48426000      5.24690000     13.17438000     -0.34876700      0.72136000      0.18400200
H     21.28952000      7.64487000     13.11313000     -1.80055800      0.29518300      0.85017100
H     21.17238000      9.31040000     14.62010000      1.51411800     -0.18632800      0.34372900
H     21.36700000     12.02610000     14.85463000     -4.10994700     -1.98415100     -1.75705200
57
Lattice="30.000000000 0.000000000 0.000000000 0.000000000 13.057705000 0.000000000 0.000000000 0.000000000 30.000000000" Energy=-457.706327970 Properties=species:S:1:pos:R:3:force:R:3 Virial="-19.64811000 -6.75556000 -1.11156000 -6.75556000 -22.92820000 -5.87256000 -1.11156000 -5.87256000 -12.48050000" pbc="T T T" Config_type=POSCAR_addH_0.3_2999_SCF weight=1.0
B     20.26314000      1.72093000     15.56410000     -1.59987300     -1.43989300      2.57204200
B     19.47330000      3.60464000     15.38541000     -1.10212600     -0.00768200      0.96329900
B     17.97325000      5.80173000     14.93608000      2.79766400     -0.41584200      0.26452000
B     16.85490000      7.98024000     14.86394000     -0.36799800     -1.23138500      0.82584300
B     15.64710000     10.09816000     15.19951000      0.41068900     -0.54524200     -0.74362300
B     14.30280000     12.03952000     15.30232000      0.10941600      5.61973900     -0.32648300
B     10.74578000      1.45378000     14.26288000     -1.50323400      0.11442300     -0.38708300
B     20.26839000      6.09005000     15.41663000      0.92874300      3.24024200      0.31164800
B     19.29193000      7.98310000     15.55620000      1.79868600     -3.01136000     -0.60816300
B     18.14933000     10.03285000     15.22617000     -0.74099500      1.89141800      1.24948200
B     16.84183000     12.16352000     15.73099000      2.14830300      3.27237500     -1.41699500
B     13.11817000      1.42603000     14.84863000     -1.19459200     -0.93590700     -0.77611400
B     11.73026000      3.66743000     15.01159000     -0.90366200     -0.30773500     -1.18377500
B     11.19175000      6.40598000     15.16044000     -2.57722800     -1.24981400      0.33642300
B     20.30152000     10.31342000     15.96302000     -0.42345200      1.89186700     -0.23658800
B     19.36636000     12.29095000     15.68673000     -1.84066900      0.51085900      0.72128000
B     15.48940000      1.44312000     15.56748000      0.85776300     -0.90795000      0.00720100
B     14.35297000      3.57794000     14.74080000      0.28170300     -0.54067800      3.69172900
B     13.11632000      5.81820000     14.65120000      1.09289400     -1.76715000     -0.20907200
B     11.86893000      8.06030000     14.41523000     -0.32415100     -1.58479800      0.37328200
B     11.45695000     10.02769000     12.85094000      0.48554200      1.85060400      3.39905500
B     18.00590000      1.40639000     15.62579000     -1.29863700      2.14214600      1.27214000
B     16.83678000      3.68486000     15.13662000     -0.38619400     -4.81388400      1.14573700
B     15.66461000      5.81110000     14.62484000     -2.91202300     -2.11221000     -0.55381800
B     14.36452000      7.99374000     14.53705000      0.36720200     -1.02929900      0.55788900
B     13.18567000     10.09591000     14.59820000      0.44084100      1.52364500     -0.77356000
B     12.10009000     12.31948000     13.81281000     -0.60487900     -1.73742600     -0.01001200
N     20.78786000      2.92229000     15.77404000     -2.29410900      0.14572200     -1.80889600
N     19.38696000      5.10445000     15.11741000     -1.93950500     -2.08265600      0.08313200
N     18.05979000      7.27314000     15.19681000     -0.89446500     -2.24500200     -1.01394800
N     16.89727000      9.37279000     14.90843000     -0.29454400      2.11562700      0.67363300